LAMMPS (7 Feb 2024 - Update 1)
OMP_NUM_THREADS environment is not set. Defaulting to 1 thread. (src/comm.cpp:98)
  using 1 OpenMP thread(s) per MPI task
#LAMMPS input file for graphene

units          metal
boundary       p p p
atom_style     atomic

read_data      data.graphene_MD
Reading data file ...
  orthogonal box = (0 0 -3) to (21 12.124356 9)
  1 by 1 by 1 MPI processor grid
  reading atoms ...
  200 atoms
  read_data CPU = 0.005 seconds


pair_style     airebo 3.0 1 1
pair_coeff     * * CH.airebo C
Reading airebo potential file CH.airebo with DATE: 2011-10-25

group          g_C type 1
200 atoms in group g_C
mass           1 12.0107

#******************************************************
# Relaxation

variable       minzdir equal bound(g_C,zmin)
variable       maxzdir equal bound(g_C,zmax)

variable       gapzdir equal v_maxzdir-v_minzdir

thermo          50

thermo_style    custom step temp v_gapzdir pe


fix             1 all nve
fix             2 all box/relax x 0.0 y 0.0 z 0.0

dump          mydump all cfg 50 relax_*.cfg mass type xs ys zs id

#dump            dumpout all atom 100 dump.lammpstrj

minimize        1e-8 1e-9 10000 10000
Neighbor list info ...
  update: every = 1 steps, delay = 0 steps, check = yes
  max neighbors/atom: 2000, page size: 100000
  master list distance cutoff = 12.2
  ghost atom cutoff = 12.2
  binsize = 6.1, bins = 4 2 2
  1 neighbor lists, perpetual/occasional/extra = 1 0 0
  (1) pair airebo, perpetual
      attributes: full, newton on, ghost
      pair build: full/bin/ghost
      stencil: full/ghost/bin/3d
      bin: standard
WARNING: Energy due to 3 extra global DOFs will be included in minimizer energies
 (src/min.cpp:219)
Per MPI rank memory allocation (min/avg/max) = 5.601 | 5.601 | 5.601 Mbytes
   Step          Temp        v_gapzdir        PotEng    
         0   0              2             -692.6083     
        50   0              2.0100501     -737.46111    
       100   0              2.0201005     -779.60685    
       150   0              2.0301511     -819.2216     
       200   0              2.040202      -856.46915    
       250   0              2.0502531     -891.50186    
       300   0              2.0603044     -924.46157    
       350   0              2.070356      -955.48031    
       400   0              2.0804078     -984.68109    
       450   0              2.0904599     -1012.1785    
       500   0              2.1005122     -1038.0795    
       550   0              2.1105648     -1062.4837    
       600   0              2.1206175     -1085.4841    
       650   0              2.1306705     -1107.1674    
       700   0              2.1407238     -1127.6147    
       750   0              2.1507773     -1146.9017    
       800   0              2.160831      -1165.0992    
       850   0              2.1708849     -1182.2733    
       900   0              2.1809391     -1198.4857    
       950   0              2.1909935     -1213.7945    
      1000   0              2.2010481     -1228.2536    
      1050   0              2.211103      -1241.9138    
      1100   0              2.221158      -1254.8227    
      1150   0              2.2312133     -1267.0245    
      1200   0              2.2412689     -1278.5611    
      1250   0              2.2513246     -1289.4715    
      1300   0              2.2613806     -1299.7922    
      1350   0              2.2714368     -1309.5578    
      1400   0              2.2814932     -1318.8003    
      1450   0              2.2915498     -1327.55      
      1500   0              2.3016066     -1335.8353    
      1550   0              2.3116637     -1343.6828    
      1600   0              2.321721      -1351.1175    
      1650   0              2.3317784     -1358.1628    
      1700   0              2.3418361     -1364.8408    
      1750   0              2.3518941     -1371.1721    
      1800   0              2.3619522     -1377.1761    
      1850   0              2.3720105     -1382.8711    
      1900   0              2.3820691     -1388.274     
      1950   0              2.3921278     -1393.4002    
      2000   0              2.4021868     -1398.2647    
      2050   0              2.4122459     -1402.8819    
      2100   0              2.4223053     -1407.2649    
      2150   0              2.4323649     -1411.4265    
      2200   0              2.4424247     -1415.3784    
      2250   0              2.4524847     -1419.1317    
      2300   0              2.4625448     -1422.6969    
      2350   0              2.4726052     -1426.0837    
      2400   0              2.4826658     -1429.3016    
      2450   0              2.4927266     -1432.3591    
      2500   0              2.5027876     -1435.2646    
      2550   0              2.5128488     -1438.0258    
      2600   0              2.5229102     -1440.65      
      2650   0              2.5329718     -1443.1443    
      2700   0              2.5430336     -1445.5152    
      2750   0              2.5530955     -1447.769     
      2800   0              2.5631577     -1449.9115    
      2850   0              2.5732201     -1451.9483    
      2900   0              2.5832827     -1453.8848    
      2950   0              2.5933454     -1455.7261    
      3000   0              2.6034084     -1457.4768    
      3050   0              2.6134715     -1459.1416    
      3100   0              2.6235348     -1460.7247    
      3150   0              2.6335983     -1462.2302    
      3200   0              2.643662      -1463.662     
      3250   0              2.6537259     -1465.0237    
      3300   0              2.66379       -1466.3189    
      3350   0              2.6738543     -1467.5508    
      3400   0              2.6839187     -1468.7226    
      3450   0              2.6939834     -1469.8371    
      3500   0              2.7040482     -1470.8973    
      3550   0              2.7141132     -1471.9057    
      3600   0              2.7241784     -1472.8649    
      3650   0              2.7342438     -1473.7773    
      3700   0              2.7443093     -1474.6451    
      3750   0              2.7543751     -1475.4706    
      3800   0              2.764441      -1476.2556    
      3850   0              2.7745071     -1477.0022    
      3900   0              2.7845734     -1477.7123    
      3950   0              2.7946398     -1478.3875    
      4000   0              2.8047065     -1479.0295    
      4050   0              2.8147733     -1479.6399    
      4100   0              2.8248403     -1480.2202    
      4150   0              2.8349074     -1480.7718    
      4200   0              2.8449748     -1481.2961    
      4250   0              2.8550423     -1481.7943    
      4300   0              2.86511       -1482.2677    
      4350   0              2.8751778     -1482.7175    
      4400   0              2.8852459     -1483.1447    
      4450   0              2.8953141     -1483.5504    
      4500   0              2.9053825     -1483.9356    
      4550   0              2.915451      -1484.3013    
      4600   0              2.9255197     -1484.6484    
      4650   0              2.9355886     -1484.9777    
      4700   0              2.9456577     -1485.29      
      4750   0              2.9557269     -1485.5862    
      4800   0              2.9657963     -1485.867     
      4850   0              2.9758659     -1486.1331    
      4900   0              2.9859356     -1486.3852    
      4950   0              2.9960055     -1486.624     
      5000   0              3.0060756     -1486.8499    
      5050   0              3.0161458     -1487.0637    
      5100   0              3.0262162     -1487.2659    
      5150   0              3.0362868     -1487.4571    
      5200   0              3.0463575     -1487.6376    
      5250   0              3.0564284     -1487.8081    
      5300   0              3.0664994     -1487.969     
      5350   0              3.0765706     -1488.1207    
      5400   0              3.086642      -1488.2637    
      5450   0              3.0967136     -1488.3983    
      5500   0              3.1067853     -1488.5249    
      5550   0              3.1168571     -1488.6439    
      5600   0              3.1269291     -1488.7557    
      5650   0              3.1370013     -1488.8606    
      5700   0              3.1470736     -1488.9588    
      5750   0              3.1571461     -1489.0508    
      5800   0              3.1672188     -1489.1367    
      5850   0              3.1772916     -1489.2169    
      5900   0              3.1873645     -1489.2917    
      5950   0              3.1974377     -1489.3612    
      6000   0              3.2075109     -1489.4257    
      6050   0              3.2175844     -1489.4856    
      6100   0              3.227658      -1489.5408    
      6150   0              3.2377317     -1489.5918    
      6200   0              3.2478056     -1489.6387    
      6250   0              3.2578796     -1489.6816    
      6300   0              3.2679538     -1489.7208    
      6350   0              3.2780282     -1489.7564    
      6400   0              3.2881027     -1489.7887    
      6450   0              3.2981773     -1489.8177    
      6500   0              3.3082522     -1489.8436    
      6550   0              3.3183271     -1489.8666    
      6600   0              3.3284022     -1489.8868    
      6650   0              3.3384775     -1489.9043    
      6700   0              3.3485529     -1489.9193    
      6750   0              3.3586284     -1489.9318    
      6800   0              3.3687041     -1489.9421    
      6850   0              3.37878       -1489.9502    
      6900   0              3.388856      -1489.9562    
      6950   0              3.3989321     -1489.9602    
      7000   0              3.4090084     -1489.9623    
      7006   0              3.4101227     -1489.9625    
Loop time of 15.865 on 1 procs for 7006 steps with 200 atoms

99.9% CPU use with 1 MPI tasks x 1 OpenMP threads

Minimization stats:
  Stopping criterion = energy tolerance
  Energy initial, next-to-last, final = 
     -692.608302921256   -1489.9624571236  -1489.96246487848
  Force two-norm initial, final = 9217.6966 0.38967523
  Force max component initial, final = 9181.8625 0.2336505
  Final line search alpha, max atom move = 0.00047684795 0.00011141576
  Iterations, force evaluations = 7006 7007

MPI task timing breakdown:
Section |  min time  |  avg time  |  max time  |%varavg| %total
---------------------------------------------------------------
Pair    | 15.452     | 15.452     | 15.452     |   0.0 | 97.40
Neigh   | 0.064338   | 0.064338   | 0.064338   |   0.0 |  0.41
Comm    | 0.068129   | 0.068129   | 0.068129   |   0.0 |  0.43
Output  | 0.045913   | 0.045913   | 0.045913   |   0.0 |  0.29
Modify  | 0          | 0          | 0          |   0.0 |  0.00
Other   |            | 0.2342     |            |       |  1.48

Nlocal:            200 ave         200 max         200 min
Histogram: 1 0 0 0 0 0 0 0 0 0
Nghost:           3130 ave        3130 max        3130 min
Histogram: 1 0 0 0 0 0 0 0 0 0
Neighs:              0 ave           0 max           0 min
Histogram: 1 0 0 0 0 0 0 0 0 0
FullNghs:        71000 ave       71000 max       71000 min
Histogram: 1 0 0 0 0 0 0 0 0 0

Total # of neighbors = 71000
Ave neighs/atom = 355
Neighbor list builds = 5
Dangerous builds = 0
Total wall time: 0:00:15
